/*--------------------------------*- C++ -*----------------------------------*\
| =========                 |                                                 |
| \\      /  F ield         | OpenFOAM: The Open Source CFD Toolbox           |
|  \\    /   O peration     | Version:  2412                                  |
|   \\  /    A nd           | Website:  www.openfoam.com                      |
|    \\/     M anipulation  |                                                 |
\*---------------------------------------------------------------------------*/
FoamFile
{
    version     2.0;
    format      ascii;
    arch        "LSB;label=32;scalar=64";
    class       volScalarField;
    location    "0";
    object      h;
}
// * * * * * * * * * * * * * * * * * * * * * * * * * * * * * * * * * * * * * //

dimensions      [0 2 -2 0 0 0 0];

internalField   uniform 294515.75;

boundaryField
{
    ceil_0F
    {
        type            calculated;
        value           uniform 294515.75;
    }
    door_0F_1
    {
        type            calculated;
        value           nonuniform List<scalar> 0();
    }
    floor_0F
    {
        type            calculated;
        value           uniform 294515.75;
    }
    wall_0F_1
    {
        type            calculated;
        value           uniform 294515.75;
    }
    wall_0F_2
    {
        type            calculated;
        value           nonuniform List<scalar> 0();
    }
    wall_0F_3
    {
        type            calculated;
        value           nonuniform List<scalar> 0();
    }
    wall_0F_4
    {
        type            calculated;
        value           nonuniform List<scalar> 0();
    }
    wall_0F_5
    {
        type            calculated;
        value           uniform 294515.75;
    }
    wall_0F_6
    {
        type            calculated;
        value           uniform 294515.75;
    }
    window_0F_1
    {
        type            calculated;
        value           uniform 294515.75;
    }
    window_0F_2
    {
        type            calculated;
        value           nonuniform List<scalar> 0();
    }
    procBoundary0to1
    {
        type            processor;
        value           uniform 294515.75;
    }
}


// ************************************************************************* //
