# vtk DataFile Version 2.0
surface written 2026-01-09T22:46:46
ASCII
DATASET POLYDATA

POINTS 24 float
1.85514 -1.25 0 3.8 -1.25 0 1.85514 -1.25 2
-4 -1.25 0 1.05514 -1.25 0 1.05514 -1.25 2
3.8 -1.25 2.2 -4 -1.25 2.2 2.67316 -0.211536 1.3
2.67316 -0.211536 0.9 1.25 1.1 2.2 1.25 1.1 0
2.23194 0.195073 1.3 2.23194 0.195073 0.9 -1.1 1.1 2.2
-1.1 1.1 0 -1.1 4.25 2.2 -1.1 4.25 0
-4 4.25 2.2 -4 4.25 0 -4 3.39423 0.9
-4 3.39423 1.3 -4 2.79423 1.3 -4 2.79423 0.9

POLYGONS 42 168
3 0 1 2 3 3 4 5 3
6 2 1 3 7 3 5 3 2
6 5 3 7 5 6 3 5 4
0 3 0 2 5 3 8 6 9
3 1 9 6 3 6 8 10 3
9 1 11 3 12 10 8 3 13
9 11 3 12 13 10 3 11 10
13 3 8 9 13 3 13 12 8
3 14 10 11 3 11 15 14 3
14 15 16 3 17 16 15 3 18
16 17 3 17 19 18 3 18 20
21 3 22 23 7 3 20 18 19
3 18 21 22 3 20 19 23 3
18 22 7 3 3 23 19 3 3
7 23 3 21 20 23 3 23 22
21 3 15 19 17 3 15 11 1
3 19 15 3 3 15 1 3 3
16 18 14 3 6 10 14 3 7
14 18 3 7 6 14

CELL_DATA 42
FIELD FieldData 1
region 1 42 int
0 0 0 0 0 0 1 1 2
2 2 2 2 2 2 2 3 3
4 4 5 5 6 6 7 7 7
7 7 7 7 7 8 8 9 9
9 9 10 10 10 10
